<?xml version="1.0" encoding="UTF-8"?>
<VTKFile type="UnstructuredGrid" version="1.0" byte_order="LittleEndian">
    <UnstructuredGrid>
        <Piece NumberOfPoints="4" NumberOfCells="1">
            <Points>
                <DataArray type="Float64" NumberOfComponents="3" format="ascii">0 0 1.02229 0 1 0 1 0 0 0 0 0 </DataArray>
            </Points>
            <Cells>
                <DataArray type="Int32" Name="connectivity" format="ascii">0 3 1 2 </DataArray>
                <DataArray type="Int32" Name="offsets" format="ascii">4 </DataArray>
                <DataArray type="UInt8" Name="types" format="ascii">10 </DataArray>
            </Cells>
            <PointData>
                <DataArray type="Float64" Name="Displacement" NumberOfComponents="3" format="ascii">0 0 0.0222857 0 0 0 0 0 0 0 0 0 </DataArray>
            </PointData>
            <CellData/>
        </Piece>
    </UnstructuredGrid>
</VTKFile>
